40
Lattice="9.19835106 0.0 0.0 0.0 9.19835106 0.0 0.0 0.0 9.19835106" Properties=species:S:1:pos:R:3:forces:R:3:magmoms:R:1 energy=-125.07451547 stress="-0.06968081421276473 0.002061040032746932 -0.008605153352640909 0.002061040032746932 -0.05540837427503673 -0.0042697333091680075 -0.008605153352640909 -0.0042697333091680075 -0.05248550539204074" pbc="T T T"
Na       5.86009276       0.21658566       1.22082658       0.07462456       0.08392216      -0.41170534      -0.00000000
Na       4.78112581       2.00535956       3.97406047      -0.58888884       0.82765644       0.47878555       0.00000000
Na       2.76482758       1.58955831       8.67261820       0.36723123       0.21715477      -0.72129720      -0.00000000
Na       0.88901603       3.15513440       7.88706734      -0.36923251      -0.00984848      -0.95135484      -0.00000000
Na       6.72182915       3.31196205       6.52700412      -0.70440436       1.42313549      -1.51890024       0.00000000
Na       0.85131227       8.68969485       5.62700746       0.12563524       0.30039217       0.00915776      -0.00000000
Na       3.08160858       6.58807961       6.96681619       1.54509433       0.43579063       0.55180287       0.00000000
Na       6.29055793       7.42647389       8.07809814       0.21291348      -1.99499888       1.04613207       0.00000000
Na       3.06717692       8.93346936       1.13135901      -0.76782748      -1.12778601       0.65930814      -0.00000000
Na       1.89611562       2.69513682       3.86332373       0.00824447      -0.43640135       1.39041225       0.00000000
Na       7.21616739       6.15188580       1.90134608       0.75867638      -0.21767976       0.46352012      -0.00000000
Na       0.05817736       6.24055054       7.65792225      -0.84491289      -1.54820493       0.22567336       0.00000000
Na       8.47441517       5.24678580       5.08192514      -0.06609979      -0.39312539      -1.20024878       0.00000000
Na       2.74286982       6.61648310       3.22651517       1.27656225      -1.07884682       0.60631096       0.00000000
Na       6.58363478       0.28736651       6.50084014      -0.48145423       0.03876742      -1.31611162       0.00000000
Na       8.39916714       2.39795668       0.79433106      -0.94328290       0.72849387      -0.25553166      -0.00000000
Na       8.22247850       2.31802936       3.48127481      -0.57689620      -0.50231975       0.01892154      -0.00000000
Na       0.75834021       6.64122749       1.09520774      -0.12201475      -0.48508243       0.19907380       0.00000000
Na       5.69977746       6.73376392       4.02812203      -0.42876232       0.35086822       1.42629056       0.00000000
Na       4.81791213       4.40307027       0.74481955      -0.48574522      -0.28105555      -0.00672084      -0.00000000
Cl       0.33056501       4.35010929       2.73229798      -0.66316476       0.90902436      -0.57026874      -0.00000000
Cl       7.63528198       7.27152279       6.15115867       0.61234243       0.79531971      -1.14540844       0.00000000
Cl       9.00473534       2.20255188       5.85608357       0.19505050      -0.47998308      -0.32694040       0.00000000
Cl       6.43425374       4.39025200       3.65061673       1.03339056      -0.97646951       0.11998889      -0.00000000
Cl       3.79821228       2.38843280       6.39878959      -0.40604183       0.04428645       0.24455975       0.00000000
Cl       3.59608891       4.15531655       3.26446701       0.07676241       1.68829676      -0.28431207      -0.00000000
Cl       1.06701847       1.57729709       1.89529227       0.38770846      -1.79367254      -0.99634583       0.00000000
Cl       1.56439659       5.28741152       5.81227982      -0.40337607      -0.84914769      -0.41289792      -0.00000000
Cl       7.27113711       4.85980299       8.98476351       0.93483391      -0.00922664      -0.15665092      -0.00000000
Cl       3.14171897       9.16041697       4.28207866      -0.26034022      -0.52084540       0.26293789       0.00000000
Cl       5.24213861       5.25396383       6.56511335      -0.61474796       1.11122475       0.04436197      -0.00000000
Cl       6.81620138       1.88002089       8.19319794       0.31671116      -1.00701189       2.62245679       0.00000000
Cl       0.66727111       7.49356860       3.42610366      -2.33107674       0.70973979      -0.23195635      -0.00000000
Cl       4.57163530       8.90575390       8.10914230      -1.45659513       0.12560633      -0.35758507      -0.00000000
Cl       2.16779112       4.74976836       9.01661216       0.63577748       0.53298846       0.77669880      -0.00000000
Cl       4.82405893       6.98796053       1.71763339      -0.67116977      -0.14680753      -0.79897838      -0.00000000
Cl       7.85721161       8.27033715       0.72584740       1.13603324      -0.09949886      -0.40250252       0.00000000
Cl       4.14510040       1.82536346       1.50547977       0.55850840       1.22903977      -0.33418021       0.00000000
Cl       6.16762776       0.11144455       3.67930906       1.96816533      -0.10151035       0.78978046      -0.00000000
Cl       1.41182243       7.95520155       8.21090936       0.96176816       2.50781530       0.46372385       0.00000000
40
Lattice="9.31665737 0.0 0.0 0.0 9.31665737 0.0 0.0 0.0 9.31665737" Properties=species:S:1:pos:R:3:forces:R:3:magmoms:R:1 energy=-128.96205704 stress="-0.04570877712185876 -0.010207706208965798 -0.0019263740900543791 -0.010207706208965798 -0.047921399777799085 0.009407335508037892 -0.0019263740900543791 0.009407335508037892 -0.044514128114282875" pbc="T T T"
Na       7.43505379       0.28165699       1.86059489      -0.73836374      -0.28581183      -0.02772579       0.00000000
Na       4.56965349       3.13525440       3.27015475      -1.63677950       0.46316741       0.06934456      -0.00000000
Na       2.88918461       0.68510851       8.22495354       0.07854668       0.28574815      -0.31118956       0.00000000
Na       2.24871268       4.32396308       8.74707663      -0.89696396      -0.01357163      -0.26187924      -0.00000000
Na       6.02910796       3.28620036       6.39895158       0.35366135      -0.59032594      -0.28751923       0.00000000
Na       0.05201331       8.23362828       5.05493655      -0.53159937      -0.47055763      -1.29485586       0.00000000
Na       2.98363260       7.18337426       6.42264217       0.82136266       0.39115489       1.21907952       0.00000000
Na       5.09477598       6.85446635       9.06776902      -0.01696800      -0.58245265       0.86815257       0.00000000
Na       3.36793978       0.52739660       2.25516483      -0.09227382      -0.62224096       0.41699569       0.00000000
Na       2.65620771       4.25063642       5.50626450       0.48548278      -1.22583372      -0.44584471      -0.00000000
Na       6.93166352       5.45253534       2.14254406      -0.50059372       0.38804863      -0.42474190      -0.00000000
Na       8.60234524       5.76408530       7.80626845       0.63794673      -0.73442061      -0.42938377       0.00000000
Na       8.40190696       4.80821693       4.40170024       0.24771736      -0.26336358       0.64016994       0.00000000
Na       1.81580534       6.05463308       2.91352978       0.33158866       1.45462668       1.14826382      -0.00000000
Na       7.27544203       9.03566000       7.22388905       0.44829139       1.03013593      -0.72160167      -0.00000000
Na       9.08634969       2.23697816       8.87915990      -0.16397864      -0.26449929      -0.49805098       0.00000000
Na       9.25729852       1.77829527       3.84192416       0.37878429       0.11317546       0.20963348       0.00000000
Na       0.49469000       7.19823367       0.44682577       0.18745160       0.64359858       0.37714702       0.00000000
Na       5.19881118       7.75432585       4.99883537       0.87251113       1.04748634      -0.30305237       0.00000000
Na       5.23228313       4.00254287       0.76954276       0.88945355       0.41943786      -0.60775278      -0.00000000
Cl       1.18867961       3.88749594       3.23186329       0.29033084      -1.87455207       0.21674190      -0.00000000
Cl       7.14154032       6.34201619       6.09031178      -0.85011331      -0.00965214      -0.95787649      -0.00000000
Cl       0.27495375       3.13223393       6.51374407      -0.23808436      -0.19982422       0.08436523       0.00000000
Cl       6.83087219       3.07218538       2.96608896       1.48024984       0.34766606      -0.81205018       0.00000000
Cl       3.86312244       1.91596006       5.18118947      -0.19244085       0.06307205       0.85012209       0.00000000
Cl       4.61476744       5.77398611       3.78150722      -0.71374728      -2.79141601       0.25029923       0.00000000
Cl       0.57504105       0.59696268       1.23561758       0.67857286      -0.38353371       0.67318154      -0.00000000
Cl       1.13972253       6.02253226       5.77260342      -1.52642859      -0.07835781       0.34504964      -0.00000000
Cl       9.24610223       4.51694804       0.49764059      -0.50758247       0.37818770       0.25521540       0.00000000
Cl       2.77680933       8.40775204       4.37646663      -0.88931118       0.58486708      -1.22023562       0.00000000
Cl       4.32114963       4.73111638       7.51851203       0.37878948       0.63835116      -0.03708233       0.00000000
Cl       6.52535682       2.09404349       8.88510617       0.13421117      -0.24080880      -0.28597379       0.00000000
Cl       8.56052137       6.89192686       2.93426978       1.13528515       1.34693209       0.23081268       0.00000000
Cl       4.89893602       8.51406619       7.50755117      -1.37869400       1.22949413      -0.86497227      -0.00000000
Cl       2.82192617       6.35301534       0.82147437       0.61113318       0.51328632      -1.09542649       0.00000000
Cl       5.37319450       7.93164812       2.23278585       0.36106438       1.54891891      -0.92471088      -0.00000000
Cl       7.49548927       7.59993990       9.05968579       0.17173336      -0.46163595       1.38647747      -0.00000000
Cl       3.40652108       2.60023631       0.73744772      -0.91053296      -1.31836205       0.48979903       0.00000000
Cl       7.06212318       0.85139258       4.87929753       0.41224984      -0.95506047       0.29161651      -0.00000000
Cl       0.73684502       9.10245232       7.07116686       0.39803748       0.47892563       1.78945859       0.00000000
69
Lattice="10.56 0.0 0.0 0.0 7.467047609329942 0.0 0.0 0.0 15.357367059544035" Properties=species:S:1:pos:R:3:forces:R:3:magmoms:R:1 energy=-321.60714439 stress="-0.0015564700967580117 -0.0010768662940160163 0.0037450115811850948 -0.0010768662940160163 0.004172642337435861 -0.0003167378636111977 0.0037450115811850948 -0.0003167378636111977 0.02841268522397353" pbc="T T T"
Na       5.33868500       6.68328114       7.41084140       0.27429800       0.25960400      -0.27175500      -0.00100000
Na       1.63566249       6.91176354       7.94538396       2.27533400       1.33923000       0.52436300       0.00000000
Na       4.91878076       7.11820743      12.82259963       0.09412600      -1.30796100       0.46047300      -0.00000000
Na       1.58665975       6.51010528      12.99938277       0.25263400       0.75032000       0.31681000      -0.00100000
Na       9.34796955       3.35540164       7.21645160      -0.67791100      -0.46649200      -0.08046200      -0.00200000
Na       1.56754278       2.84247162      12.73359237       2.04884600       0.96750700      -0.30127200      -0.00000000
Na       8.82688057       3.36987539      13.04199435      -1.31783600       0.40191000       0.35346000      -0.00200000
Na       8.83632600       6.93964727       7.13070000       0.85885300       0.37795300      -0.09581400      -0.00100000
Na       8.31610098       7.05500411      13.03636656       0.43914100       0.72335500       0.04740600      -0.00200000
Na       5.58960609       3.20811255       7.14044664      -0.30105900       0.33767300       0.00142500      -0.00200000
Na       5.24101237       3.34344367      13.39553587      -0.30485100      -0.54011400       0.05755400      -0.00200000
Na       2.25013608       2.94925827       7.42777649      -2.45073600       0.56366900      -0.15533200      -0.00100000
Ni       0.00000000       0.00000000       0.00000000      -0.02114900       0.11280800       1.06874500       0.68400000
Ni       3.52000000       0.00000000       0.00000000      -0.11715600       0.26164700       1.10275200       0.68200000
Ni       7.04000000       0.00000000       0.00000000      -0.25708100       0.23692800       1.09344300       0.63200000
Ni       0.00000000       2.48901587       0.00000000      -0.01678100      -0.26081400       0.63171700       0.66700000
Ni       3.52000000       2.48901587       0.00000000      -0.24915100      -0.34265000       1.27271000       0.65500000
Ni       7.04000000       2.48901587       0.00000000       0.11774300      -0.27781300       0.94399000       0.63200000
Ni       0.00000000       4.97803174       0.00000000      -0.13141200       0.12696400       0.47474100       0.66800000
Ni       3.52000000       4.97803174       0.00000000      -0.06527600       0.04917800       0.53631100       0.56200000
Ni       7.04000000       4.97803174       0.00000000      -0.01071700       0.07953100       0.32680800       0.62400000
Ni       1.76000000       1.24450793       1.24450793       0.08792000      -0.02142700      -0.46615800       0.68900000
Ni       5.28000000       1.24450793       1.24450793      -0.13369300       0.02521600      -0.35116700       0.70200000
Ni       8.80000000       1.24450793       1.24450793      -0.01805200      -0.03081100      -0.33426500       0.72700000
Ni       1.76000000       3.73352380       1.24450793      -0.08318900      -0.02706900      -0.37263900       0.70800000
Ni       5.28000000       3.73352380       1.24450793       0.02803700      -0.03726400      -0.34234300       0.69700000
Ni       8.80000000       3.73352380       1.24450793      -0.06807700      -0.03571900      -0.44092000       0.68400000
Ni       1.76000000       6.22253967       1.24450793      -0.01077600       0.06684200      -0.45141800       0.69700000
Ni       5.28000000       6.22253967       1.24450793      -0.05641700       0.02475900      -0.38546900       0.69800000
Ni       8.80000000       6.22253967       1.24450793      -0.06816800       0.06137900      -0.43125600       0.70100000
Ni       0.00000000       0.00000000       2.48901587       0.01840100      -0.04504200       0.01667200       0.73000000
Ni       3.52000000       0.00000000       2.48901587      -0.00594200      -0.07187500       0.13735100       0.74400000
Ni       7.04000000       0.00000000       2.48901587       0.01524100      -0.06209800       0.01139500       0.66800000
Ni       0.00000000       2.48901587       2.48901587       0.01398700       0.07014800      -0.14458900       0.70200000
Ni       3.52000000       2.48901587       2.48901587      -0.01958000       0.07468200       0.10955700       0.73400000
Ni       7.04000000       2.48901587       2.48901587       0.00732500       0.05563900      -0.00404800       0.66500000
Ni       0.00000000       4.97803174       2.48901587       0.00691500      -0.02624800       0.05465400       0.65400000
Ni       3.52000000       4.97803174       2.48901587      -0.02083400       0.01344300       0.03706500       0.63900000
Ni       7.04000000       4.97803174       2.48901587       0.00482400       0.00295200      -0.00764000       0.62300000
Ni       1.76000000       1.24450793       3.73352380      -0.01518900       0.00452900       0.45511400       0.68200000
Ni       5.28000000       1.24450793       3.73352380      -0.04760600       0.00819200       0.29543800       0.72000000
Ni       8.80000000       1.24450793       3.73352380       0.10404700      -0.01591500       0.31438700       0.72400000
Ni       1.76000000       3.73352380       3.73352380      -0.00733800      -0.07283800       0.42022500       0.70800000
Ni       5.28000000       3.73352380       3.73352380       0.06543500      -0.03714100       0.40821000       0.68900000
Ni       8.80000000       3.73352380       3.73352380       0.04986300      -0.03619500       0.39952300       0.68400000
Ni       1.76000000       6.22253967       3.73352380       0.04303000       0.05565700       0.34935700       0.71500000
Ni       5.28000000       6.22253967       3.73352380       0.03905000       0.03163100       0.40714500       0.69900000
Ni       8.80000000       6.22253967       3.73352380      -0.00922100       0.04705100       0.36670100       0.69200000
Ni       0.00000000       0.00000000       4.97803174       0.24893500       0.26227900      -1.18487300       0.68100000
Ni       3.52000000       0.00000000       4.97803174      -0.07348200       0.21310600      -0.91795800       0.72800000
Ni       7.04000000       0.00000000       4.97803174      -0.13793300       0.20663000      -0.93203000       0.61700000
Ni       0.00000000       2.48901587       4.97803174       0.24453500      -0.32100400      -1.24541800       0.64100000
Ni       3.52000000       2.48901587       4.97803174       0.07565100      -0.33993700      -1.16705100       0.69800000
Ni       7.04000000       2.48901587       4.97803174       0.23558800      -0.24308700      -1.01049100       0.61200000
Ni       0.00000000       4.97803174       4.97803174       0.14330600       0.09587400      -0.41071300       0.59500000
Ni       3.52000000       4.97803174       4.97803174       0.03633900       0.00403400      -0.29887700       0.64200000
Ni       7.04000000       4.97803174       4.97803174       0.06627000       0.03245100      -0.46502800       0.58900000
Cl       0.02503605       1.26421155       7.78735135       0.10721700       0.57732900       0.31736900       0.00200000
Cl       3.83798157       1.36461312       7.56302526       0.82045100      -1.68880300       0.20759000       0.01100000
Cl       3.56796570       4.90800807       7.37645080       0.40724900       0.92641200       0.24591900       0.00600000
Cl       7.17611111       1.23288751       6.97718100      -0.24574600       0.37271800       0.05317800       0.01500000
Cl       7.46976537       5.02803138       7.28317564      -1.28917800      -0.63959500       0.50286700       0.00300000
Cl       6.62769996       1.27865159      13.25547378       0.66803800       0.96148900       0.10368400       0.01400000
Cl       9.98392303       5.48907963      12.74667727       1.34974900      -0.97892500      -0.50159800       0.00300000
Cl       0.23560772       5.32348126       7.34076744      -0.83218300      -1.82570400      -0.49101500       0.00300000
Cl       6.82057936       5.09103491      12.94046984      -0.28531800       0.20900800      -0.31150800       0.00400000
Cl       3.17975282       4.59221237      13.13987159       0.31276500       0.68385300      -0.43422400       0.00600000
Cl       3.08282832       0.75612178      11.85470727      -0.56113000       0.75478500      -0.82618700       0.00100000
Cl      10.35608053       1.62953268      12.97003067      -1.65097600      -2.67782200       0.40740500       0.00700000
34
Lattice="11.131217363792695 0.0 0.0 6.6787304182756175 4.164920167302128 0.0 0.0 0.0 14.386934651854883" Properties=species:S:1:pos:R:3:forces:R:3:magmoms:R:1 energy=-148.90492027 stress="0.010275446406014617 0.0008681939194103613 -0.004398141820644897 0.0008681939194103613 0.0287013238135 0.005897720561720482 -0.004398141820644897 0.005897720561720482 0.0038251775243979395" pbc="T T T"
Na       9.60136730       3.62014654      12.73653558      -1.07875000      -0.25029900       0.27700800      -0.00300000
Na      11.61476010       1.72184339      10.79002677      -0.30384400      -0.42918500       0.01705000       0.00000000
Na       3.91363717       2.24205692       7.01110438      -1.13786800      -0.47136100      -0.36046400       0.00000000
Na       6.51224699       1.48761103      10.38884015       0.53215100      -0.58414700       0.42224800       0.00100000
Na       8.21052894       2.77299384       7.63631473      -0.91660700       0.20340400      -0.38139800       0.00000000
Na      11.78478738       2.70140072       6.81581071      -0.49771400       0.08373200      -0.42878500      -0.00000000
Na       4.96943662       2.97401000      12.97688264      -2.42145000      -0.77238000       0.80128600      -0.00600000
Ni       0.00000000       0.00000000       0.00000000       0.82610900       0.30323100       0.68925600       0.69800000
Ni      12.80089997       1.78496579       0.47037979       0.06341900      -0.10396300       0.60688400       0.72200000
Ni       5.56560868       0.00000000       0.00000000       0.25932200      -0.00902900       0.44536800       0.70500000
Ni       7.23529129       1.78496579       0.47037979       0.09789500      -0.20734500       0.52237800       0.73300000
Ni      14.47058257       3.56993157       0.94075957      -0.14297500       0.10802900       0.14390400       0.67500000
Ni       9.46153476       1.18997719       1.41113936      -0.11064000      -0.02515300      -0.08601500       0.70300000
Ni       8.90497389       3.56993157       0.94075957      -0.13674400       0.12083600       0.73965700       0.66700000
Ni       3.89592608       1.18997719       1.41113936      -0.11977000      -0.01392000      -0.23383700       0.68000000
Ni      11.13121736       2.97494298       1.88151914      -0.14437400      -0.10061200      -0.30290200       0.71400000
Ni       6.12216955       0.59498860       2.35189893      -0.14088600       0.22966100      -0.31861000       0.69900000
Ni       5.56560868       2.97494298       1.88151914       0.03229900      -0.08122000      -0.17250700       0.71500000
Ni      11.68777823       0.59498860       2.35189893      -0.05220100       0.00486900      -0.03395700       0.70400000
Ni       7.79185215       2.37995438       2.82227871      -0.08834200       0.08098100       0.07868200       0.73000000
Ni       2.78280434       0.00000000       3.29265850       0.12763300      -0.15383500       0.00519900       0.73800000
Ni      13.35746084       2.37995438       2.82227871      -0.23091500      -0.27143400      -0.48078000       0.69100000
Ni       8.34841302       0.00000000       3.29265850       0.31440200       0.34189600       0.00140800       0.71200000
Ni       4.45248695       1.78496579       3.76303829       0.43500400      -0.04349500      -0.39291300       0.70300000
Ni       6.12216955       3.56993157       4.23341807       0.04207900       0.04481400      -0.92886600       0.75600000
Ni      10.01809563       1.78496579       3.76303829       0.10075800      -0.18248800      -0.38016500       0.77700000
Ni      11.68777823       3.56993157       4.23341807      -0.21125900       0.24508900      -0.65318700       0.58000000
Cl       6.97196900       3.43306451      12.02246194       1.39635300       0.89512900      -0.46217100       0.01400000
Cl      12.85133925       1.75593428       8.65276927       1.05065700      -0.39133300       0.58634600       0.00100000
Cl       5.80213290       2.24983860       8.23681219       0.95710500       0.10493200       0.24287200      -0.00000000
Cl      13.84178249       3.17950790       5.09283397      -0.56121000       0.57461100      -0.08265700       0.04600000
Cl      11.87872516       3.87631237      12.13010135       1.13990100       0.70095400      -0.24867100       0.01400000
Cl       9.65678397       3.81558000       6.07059096       0.55464200       0.58503800      -0.94887800       0.01600000
Cl       9.28149603       1.98768444       9.55621708       0.36581900      -0.53600800       1.31721700       0.00100000
61
Lattice="7.467047609329942 0.0 0.0 0.0 7.467047609329942 0.0 0.0 0.0 17.16062408694259" Properties=species:S:1:pos:R:3:forces:R:3:magmoms:R:1 energy=-302.9649861 stress="0.02599996121476297 0.002137779290706275 -8.140176201976946e-05 0.002137779290706275 0.02166738644748548 0.0005114791898478812 -8.140176201976946e-05 0.0005114791898478812 0.01845986866618495" pbc="T T T"
Na       6.47094604       6.17905887      14.66681919      -0.20275700      -0.70504200       0.92502000      -0.00300000
Na       2.80425246       0.34598050      13.02879794      -0.97050400       0.17449700       0.24713700      -0.00000000
Na       6.38541201       2.28338310      10.09147889       0.43831600      -0.65213100       0.58915200      -0.00000000
Na       2.91893721       3.92365932      14.47074535      -0.12925100       0.14311800       0.24337700      -0.00200000
Na       0.08049375       5.93566055      10.56379930      -0.19486700       0.30379500       0.15817800       0.00000000
Na       2.70462470       2.18866304      10.18986372       1.17636400      -1.13582000      -0.02420500      -0.00000000
Na       4.02689807       5.94631780       9.58307008      -0.76473800      -0.60397200       0.00361700      -0.00200000
Na       6.18998227       1.97707913      14.18223415      -0.62261600       0.78709900       0.92293700      -0.00200000
Ni       0.00000000       0.00000000       0.00000000       0.00861500       0.07045400       0.53989400       0.74500000
Ni       2.48901587       0.00000000       0.00000000      -0.11140800       0.07303400       0.27708300       0.76200000
Ni       4.97803174       0.00000000       0.00000000       0.11191400       0.12477000       0.28200600       0.74800000
Ni       0.00000000       2.48901587       0.00000000      -0.02938900      -0.24668800       0.18413200       0.75100000
Ni       2.48901587       2.48901587       0.00000000       0.16654800      -0.03666600       0.53478000       0.74100000
Ni       4.97803174       2.48901587       0.00000000      -0.13644700       0.02328100       0.39781500       0.74300000
Ni       0.00000000       4.97803174       0.00000000       0.01314900       0.13148800       0.07592600       0.72900000
Ni       2.48901587       4.97803174       0.00000000       0.08405700      -0.01991000       0.74333400       0.73400000
Ni       4.97803174       4.97803174       0.00000000      -0.08627100      -0.14185700       0.50017000       0.73900000
Ni       1.24450793       1.24450793       1.76000000       0.02848700       0.04273200      -0.26417300       0.72200000
Ni       3.73352380       1.24450793       1.76000000      -0.02308400      -0.03656600      -0.21866200       0.72500000
Ni       6.22253967       1.24450793       1.76000000      -0.00629300       0.03598500      -0.32486700       0.73300000
Ni       1.24450793       3.73352380       1.76000000       0.04729200      -0.00401700      -0.18578300       0.72600000
Ni       3.73352380       3.73352380       1.76000000      -0.01550900      -0.00458800      -0.29675400       0.70300000
Ni       6.22253967       3.73352380       1.76000000      -0.04517900       0.00618000      -0.20127100       0.72600000
Ni       1.24450793       6.22253967       1.76000000      -0.00358200      -0.04295200      -0.26222600       0.71700000
Ni       3.73352380       6.22253967       1.76000000      -0.03152500       0.03587200      -0.22032100       0.72400000
Ni       6.22253967       6.22253967       1.76000000       0.04912600      -0.06115600      -0.31701700       0.71200000
Ni       0.00000000       0.00000000       3.52000000       0.03053500      -0.02429000       0.04563400       0.70700000
Ni       2.48901587       0.00000000       3.52000000      -0.02767100      -0.01512300      -0.00707800       0.71900000
Ni       4.97803174       0.00000000       3.52000000       0.00887800       0.00461500       0.00759800       0.71800000
Ni       0.00000000       2.48901587       3.52000000      -0.00030600       0.00129100      -0.08856000       0.73100000
Ni       2.48901587       2.48901587       3.52000000       0.01720300       0.01654000       0.04279200       0.71100000
Ni       4.97803174       2.48901587       3.52000000      -0.01882400       0.00572100       0.03341400       0.72400000
Ni       0.00000000       4.97803174       3.52000000       0.01093700       0.01466000      -0.00456700       0.73100000
Ni       2.48901587       4.97803174       3.52000000      -0.00577300      -0.00200800       0.02289500       0.71300000
Ni       4.97803174       4.97803174       3.52000000      -0.00714200      -0.00606900       0.02038600       0.72400000
Ni       1.24450793       1.24450793       5.28000000      -0.01819500      -0.02740200       0.29403000       0.72900000
Ni       3.73352380       1.24450793       5.28000000       0.06280100      -0.04406900       0.23452700       0.70700000
Ni       6.22253967       1.24450793       5.28000000      -0.05163200       0.15607600       0.16790900       0.69900000
Ni       1.24450793       3.73352380       5.28000000       0.00882500       0.00190800       0.23890400       0.72800000
Ni       3.73352380       3.73352380       5.28000000      -0.10969200       0.01248100       0.06624300       0.72200000
Ni       6.22253967       3.73352380       5.28000000       0.09409100      -0.00832500       0.13857100       0.71500000
Ni       1.24450793       6.22253967       5.28000000      -0.03527200       0.03187900       0.24564000       0.74100000
Ni       3.73352380       6.22253967       5.28000000       0.06581600       0.01531700       0.26502100       0.69600000
Ni       6.22253967       6.22253967       5.28000000      -0.03165200      -0.13510200       0.18215400       0.72000000
Ni       0.00000000       0.00000000       7.04000000       0.30449900       0.01912100      -0.21922300       0.74000000
Ni       2.48901587       0.00000000       7.04000000      -0.03584900      -0.01272800      -0.38957900       0.75800000
Ni       4.97803174       0.00000000       7.04000000      -0.37013100      -0.05949100      -0.27071600       0.66600000